##############################################################################
#                                                                            #
# Nb-Rh            # Nb1.3Rh2.7                                    #  452266 #
#                                                                            #
##############################################################################
#                                                                            #
#                           Pearson's Crystal Data                           #
#      Crystal Structure Database for Inorganic Compounds (on DVD)           #
#                              Release 2022/23                               #
#                  Editors: Pierre Villars and Karin Cenzual                 #
#                                                                            #
#   Copyright (c) ASM International & Material Phases Data System (MPDS),    #
# Switzerland & National Institute for Materials Science (NIMS), Japan, 2022 #
#                   All rights reserved. Version 2022.07                     #
#                                                                            #
#   This copy of Pearson's Crystal Data is licensed to:                      #
#   Indian Institute of Technology Kharagpur, Periodical Section, Central Library, Academic Site License         #
#                                                                            #
##############################################################################

data_452266
_audit_creation_date                     2024-01-07
_audit_creation_method
;
Pearson's Crystal Data browser
;
#_database_code_PCD                      452266
_database_code_PDF                       04-003-1576

# Entry summary

_chemical_formula_structural             'Nb Rh~3~'
_chemical_formula_sum                    'Nb Rh3'
_chemical_name_mineral                   ?
_chemical_compound_source                ?
_chemical_name_structure_type            PuAl~3~,hP24,194
_chemical_formula_weight                 401.6
_chemical_melting_point                  2173

# Bibliographic data

_publ_section_title
'The Niobium(Columbium)-Rhodium Binary System Part 1: The Constitution Diagram'
_journal_coden_ASTM                      TMSAAB
_journal_name_full                       'Trans. Metall. Soc. AIME'
_journal_year                            1964
_journal_volume                          230
_journal_page_first                      1250
_journal_page_last                       1259
_journal_language                        English
loop_
 _publ_author_name
 _publ_author_address
'Ritter D.L.'
;
Massachusetts Institute of Technology (MIT)
Department of Metallurgy
Cambridge
U.S.A. Massachusetts
;
# Standardized crystallographic data

_cell_length_a                           5.483
_cell_length_b                           5.483
_cell_length_c                           13.405
_cell_angle_alpha                        90
_cell_angle_beta                         90
_cell_angle_gamma                        120
_cell_volume                             349.01
_cell_formula_units_Z                    6
_space_group_IT_number                   194
_space_group_name_H-M_alt                'P 63/m m c'
loop_
 _space_group_symop_id
 _space_group_symop_operation_xyz
 1 'x, y, z'
 2 '-x+y, -x, 1/2-z'
 3 '-x+y, -x, z'
 4 '-x+y, y, 1/2-z'
 5 '-x+y, y, z'
 6 '-x, -x+y, -z'
 7 '-x, -x+y, 1/2+z'
 8 '-x, -y, -z'
 9 '-x, -y, 1/2+z'
 10 '-y, -x, 1/2-z'
 11 '-y, -x, z'
 12 '-y, x-y, 1/2-z'
 13 '-y, x-y, z'
 14 'x, x-y, 1/2-z'
 15 'x, x-y, z'
 16 'x, y, 1/2-z'
 17 'x-y, -y, -z'
 18 'x-y, -y, 1/2+z'
 19 'x-y, x, -z'
 20 'x-y, x, 1/2+z'
 21 'y, -x+y, -z'
 22 'y, -x+y, 1/2+z'
 23 'y, x, -z'
 24 'y, x, 1/2+z'

# Atomic positions taken from type-defining entry

loop_
 _atom_type_symbol
 Rh
 Nb
loop_
 _atom_site_label
 _atom_site_type_symbol
 _atom_site_symmetry_multiplicity
 _atom_site_Wyckoff_symbol
 _atom_site_fract_x
 _atom_site_fract_y
 _atom_site_fract_z
 _atom_site_occupancy
 Rh1 Rh 12 k 0.1663 0.3326 0.5815 1
 Rh2 Rh 6 h 0.5160 0.0320 0.25 1
 Nb1 Nb 4 f 0.333333 0.666667 0.0892 1
 Nb2 Nb 2 b 0 0 0.25 1


_exptl_crystal_colour                    ?
_exptl_crystal_density_meas              ?
_exptl_crystal_density_diffrn            11.47
_cell_measurement_temperature            ?
_cell_measurement_radiation              'X-rays, Cr Ka, Cu Ka'
_cell_measurement_reflns_used            ?
_diffrn_ambient_temperature              ?
_diffrn_measurement_device               'Debye-Scherrer film'
_diffrn_measurement_device_type          ?
_diffrn_radiation_type                   ?
_diffrn_reflns_number                    ?
_exptl_absorpt_coefficient_mu            ?
_exptl_absorpt_correction_type           ?
_computing_structure_solution            ?
_refine_ls_number_parameters             ?
_refine_ls_number_reflns                 ?
_refine_ls_R_factor_gt                   ?
_refine_ls_wR_factor_gt                  ?

# End of data set 452266

