##############################################################################
#                                                                            #
# Ce-Ni            # Ce0.95Ni2                                     #  453519 #
#                                                                            #
##############################################################################
#                                                                            #
#                           Pearson's Crystal Data                           #
#      Crystal Structure Database for Inorganic Compounds (on DVD)           #
#                              Release 2023/24                               #
#                  Editors: Pierre Villars and Karin Cenzual                 #
#                                                                            #
#   Copyright (c) ASM International & Material Phases Data System (MPDS),    #
# Switzerland & National Institute for Materials Science (NIMS), Japan, 2023 #
#                   All rights reserved. Version 2023.07                     #
#                                                                            #
#   This copy of Pearson's Crystal Data is licensed to:                      #
#   Hunter College - City University of New York                             #
#                                                                            #
##############################################################################

data_453519
_audit_creation_date                     2024-02-23
_audit_creation_method
;
Pearson's Crystal Data browser
;
#_database_code_PCD                      453519
_database_code_PDF                       04-003-2617

# Entry summary

_chemical_formula_structural             'Ce~0.95~ Ni~2~'
_chemical_formula_sum                    'Ce0.97 Ni2'
_chemical_name_mineral                   ?
_chemical_compound_source                ?
_chemical_name_structure_type            TmNi~2~,cF192,216
_chemical_formula_weight                 250.5

# Bibliographic data

_publ_section_title
'Deviations from the C15 type structure in RNi~2~ compounds (R= Y, Ce)'       
_journal_coden_ASTM                      EJSCE5
_journal_name_full                       'Eur. J. Solid State Inorg. Chem.'
_journal_year                            1991
_journal_volume                          28
_journal_issue                           Suppl
_journal_page_first                      597
_journal_page_last                       600
_journal_language                        English
loop_
 _publ_author_name
 _publ_author_address
'Latroche M.'
;
National Center for Scientific Research (CNRS)
Laboratoire de Chimie Metallurgique des Terres Rares (LCMTR)
Grenoble
France
;
'Paul Boncour V.'
;
National Center for Scientific Research (CNRS)
Laboratoire de Chimie Metallurgique des Terres Rares (LCMTR)
Meudon-Bellevue
France
;
'Percheron Guegan A.'
;
National Center for Scientific Research (CNRS)
Laboratoire de Chimie Metallurgique des Terres Rares (LCMTR)
Meudon-Bellevue
France
;
'Achard J.C.'
;
National Center for Scientific Research (CNRS)
Laboratoire de Chimie Metallurgique des Terres Rares (LCMTR)
Meudon-Bellevue
France
;

# Standardized crystallographic data

_cell_length_a                           14.417
_cell_length_b                           14.417
_cell_length_c                           14.417
_cell_angle_alpha                        90
_cell_angle_beta                         90
_cell_angle_gamma                        90
_cell_volume                             2996.57
_cell_formula_units_Z                    64
_space_group_IT_number                   216
_space_group_name_H-M_alt                'F -4 3 m'
loop_
 _space_group_symop_id
 _space_group_symop_operation_xyz
 1 'x, y, z'
 2 '-x, -y, z'
 3 '-x, -z, y'
 4 '-x, y, -z'
 5 '-x, z, -y'
 6 '-y, -x, z'
 7 '-y, -z, x'
 8 '-y, x, -z'
 9 '-y, z, -x'
 10 '-z, -x, y'
 11 '-z, -y, x'
 12 '-z, x, -y'
 13 '-z, y, -x'
 14 'x, -y, -z'
 15 'x, -z, -y'
 16 'x, z, y'
 17 'y, -x, -z'
 18 'y, -z, -x'
 19 'y, x, z'
 20 'y, z, x'
 21 'z, -x, -y'
 22 'z, -y, -x'
 23 'z, x, y'
 24 'z, y, x'
 25 'x, 1/2+y, 1/2+z'
 26 '-x, 1/2-y, 1/2+z'
 27 '-x, 1/2-z, 1/2+y'
 28 '-x, 1/2+y, 1/2-z'
 29 '-x, 1/2+z, 1/2-y'
 30 '-y, 1/2-x, 1/2+z'
 31 '-y, 1/2-z, 1/2+x'
 32 '-y, 1/2+x, 1/2-z'
 33 '-y, 1/2+z, 1/2-x'
 34 '-z, 1/2-x, 1/2+y'
 35 '-z, 1/2-y, 1/2+x'
 36 '-z, 1/2+x, 1/2-y'
 37 '-z, 1/2+y, 1/2-x'
 38 'x, 1/2-y, 1/2-z'
 39 'x, 1/2-z, 1/2-y'
 40 'x, 1/2+z, 1/2+y'
 41 'y, 1/2-x, 1/2-z'
 42 'y, 1/2-z, 1/2-x'
 43 'y, 1/2+x, 1/2+z'
 44 'y, 1/2+z, 1/2+x'
 45 'z, 1/2-x, 1/2-y'
 46 'z, 1/2-y, 1/2-x'
 47 'z, 1/2+x, 1/2+y'
 48 'z, 1/2+y, 1/2+x'
 49 '1/2+x, y, 1/2+z'
 50 '1/2-x, -y, 1/2+z'
 51 '1/2-x, -z, 1/2+y'
 52 '1/2-x, y, 1/2-z'
 53 '1/2-x, z, 1/2-y'
 54 '1/2-y, -x, 1/2+z'
 55 '1/2-y, -z, 1/2+x'
 56 '1/2-y, x, 1/2-z'
 57 '1/2-y, z, 1/2-x'
 58 '1/2-z, -x, 1/2+y'
 59 '1/2-z, -y, 1/2+x'
 60 '1/2-z, x, 1/2-y'
 61 '1/2-z, y, 1/2-x'
 62 '1/2+x, -y, 1/2-z'
 63 '1/2+x, -z, 1/2-y'
 64 '1/2+x, z, 1/2+y'
 65 '1/2+y, -x, 1/2-z'
 66 '1/2+y, -z, 1/2-x'
 67 '1/2+y, x, 1/2+z'
 68 '1/2+y, z, 1/2+x'
 69 '1/2+z, -x, 1/2-y'
 70 '1/2+z, -y, 1/2-x'
 71 '1/2+z, x, 1/2+y'
 72 '1/2+z, y, 1/2+x'
 73 '1/2+x, 1/2+y, z'
 74 '1/2-x, 1/2-y, z'
 75 '1/2-x, 1/2-z, y'
 76 '1/2-x, 1/2+y, -z'
 77 '1/2-x, 1/2+z, -y'
 78 '1/2-y, 1/2-x, z'
 79 '1/2-y, 1/2-z, x'
 80 '1/2-y, 1/2+x, -z'
 81 '1/2-y, 1/2+z, -x'
 82 '1/2-z, 1/2-x, y'
 83 '1/2-z, 1/2-y, x'
 84 '1/2-z, 1/2+x, -y'
 85 '1/2-z, 1/2+y, -x'
 86 '1/2+x, 1/2-y, -z'
 87 '1/2+x, 1/2-z, -y'
 88 '1/2+x, 1/2+z, y'
 89 '1/2+y, 1/2-x, -z'
 90 '1/2+y, 1/2-z, -x'
 91 '1/2+y, 1/2+x, z'
 92 '1/2+y, 1/2+z, x'
 93 '1/2+z, 1/2-x, -y'
 94 '1/2+z, 1/2-y, -x'
 95 '1/2+z, 1/2+x, y'
 96 '1/2+z, 1/2+y, x'
loop_
 _atom_type_symbol
 Ni
 Ce
loop_
 _atom_site_label
 _atom_site_type_symbol
 _atom_site_symmetry_multiplicity
 _atom_site_Wyckoff_symbol
 _atom_site_fract_x
 _atom_site_fract_y
 _atom_site_fract_z
 _atom_site_occupancy
 Ni1 Ni 48 h 0.0607 0.0607 0.311 1
 Ni2 Ni 48 h 0.0619 0.0619 0.814 1
 Ce1 Ce 24 g 0.005 0.25 0.25 1
 Ce2 Ce 16 e 0.1093 0.1093 0.1093 1
 Ni3 Ni 16 e 0.313 0.313 0.313 1
 Ce3 Ce 16 e 0.6278 0.6278 0.6278 1
 Ni4 Ni 16 e 0.814 0.814 0.814 1
 Ce4 Ce 4 b 0.5 0.5 0.5 1
 Ce5 Ce 4 a 0 0 0 0.5


_exptl_crystal_colour                    ?
_exptl_crystal_density_meas              ?
_exptl_crystal_density_diffrn            8.88
_cell_measurement_temperature            ?
_cell_measurement_radiation              'X-rays, Cu Ka'
_cell_measurement_wavelength             1.5418
_pd_proc_wavelength                      1.5418
_cell_measurement_reflns_used            ?
_diffrn_ambient_temperature              ?
_diffrn_measurement_device               'automatic diffractometer'
_diffrn_measurement_device_type          'Philips PW1710'
_diffrn_radiation_type                   'X-rays, Cu Ka'
_diffrn_radiation_wavelength             1.5418
_diffrn_reflns_number                    ?
_exptl_absorpt_coefficient_mu            ?
_exptl_absorpt_correction_type           ?
_computing_structure_solution            'starting values from the literature'
_refine_ls_number_parameters             ?
_refine_ls_number_reflns                 ?
_refine_ls_R_factor_gt                   ?
_refine_ls_wR_factor_gt                  ?
_pd_proc_ls_proof_R_factor               0.0523
_pd_proc_ls_proof_wR_factor              0.0626
_refine_ls_R_I_factor                    ?

# End of data set 453519

